TITLE = "MyDevice"
VARIABLES = "x", "y", "AtContactNode", "ContactSurfaceArea", "CylindricalNodeVolume", "CylindricalSurfaceArea", "NSurfaceNormal_x", "NSurfaceNormal_y", "NetDoping", "NodeVolume", "SurfaceArea", "coordinate_index", "node_index", "CylindricalEdgeCouple", "CylindricalEdgeNodeVolume@n0", "CylindricalEdgeNodeVolume@n1", "EdgeCouple", "EdgeInverseLength", "EdgeLength", "EdgeNodeVolume", "edge_index", "i0_distance", "i0_normal_x", "i0_normal_y", "i1_distance", "i1_normal_x", "i1_normal_y", "unitx", "unity", "ElementCylindricalEdgeCouple", "ElementCylindricalNodeVolume@en0", "ElementCylindricalNodeVolume@en1", "ElementEdgeCouple", "ElementNodeVolume"
ZONE T="gas1" NODES=22, ELEMENTS=20, DATAPACKING=BLOCK, ZONETYPE=FETRIANGLE, VARLOCATION=([30,31,32,33,34]=CELLCENTERED)
0 0 0.1 0.1 0.2 0.2 0.3 0.3 0.4 0.4 0.5 0.5 0.6 0.6 0.7 0.7 0.8 0.8 0.9 0.9 1 1
-0.001 0 -0.001 0 -0.001 0 -0.001 0 -0.001 0 -0.001 0 -0.001 0 -0.001 0 -0.001 0 -0.001 0 -0.001 0
0 0 0 0 0 0 0 0 0 0 0 0 0 0 0 0 0 0 0 0 0 0
0 0 0 0 0 0 0 0 0 0 0 0 0 0 0 0 0 0 0 0 0 0
0 0 0 0 0 0 0 0 0 0 0 0 0 0 0 0 0 0 0 0 0 0
0 0 0 0 0 0 0 0 0 0 0 0 0 0 0 0 0 0 0 0 0 0
0 0 0 0 0 0 0 0 0 0 0 0 0 0 0 0 0 0 0 0 0 0
0 0 0 0 0 0 0 0 0 0 0 0 0 0 0 0 0 0 0 0 0 0
1e+18 1e+18 1e+18 1e+18 1e+18 1e+18 1e+18 1e+18 1e+18 1e+18 1e+18 1e+18 1e+18 1e+18 1e+18 1e+18 1e+18 1e+18 1e+18 1e+18 1e+18 1e+18
2.5e-05 2.5e-05 5e-05 5e-05 5e-05 5e-05 5e-05 5e-05 5e-05 5e-05 5e-05 5e-05 5e-05 5e-05 5e-05 5e-05 5e-05 5e-05 5e-05 5e-05 2.5e-05 2.5e-05
0 0 0 0 0 0 0 0 0 0 0 0 0 0 0 0 0 0 0 0 0 0
0 1 13 14 26 27 39 40 52 53 65 66 78 79 91 92 104 105 117 118 130 131
0 1 2 3 4 5 6 7 8 9 10 11 12 13 14 15 16 17 18 19 20 21
0 0 0 0 0 0 0 0 0 0 0 0 0 0 0 0 0 0 0 0 0 0
0 0 0 0 0 0 0 0 0 0 0 0 0 0 0 0 0 0 0 0 0 0
0 0 0 0 0 0 0 0 0 0 0 0 0 0 0 0 0 0 0 0 0 0
0.02525 0.0168333 0.02525 0.02525 0.02525 0.02525 0.02525 0.02525 0.02525 0.02525 0.02525 0.02525 0.02525 0.02525 0.02525 0.02525 0.02525 0.02525 0.02525 0.02525 0.0168333 0.02525
505 340 257.5 257.5 257.5 257.5 257.5 257.5 257.5 257.5 257.5 257.5 257.5 257.5 257.5 257.5 257.5 257.5 257.5 257.5 340 505
0.0505 0.0670017 0.0752512 0.0752512 0.0752512 0.0752512 0.0752512 0.0752512 0.0752512 0.0752512 0.0752512 0.0752512 0.0752512 0.0752512 0.0752512 0.0752512 0.0752512 0.0752512 0.0752512 0.0752512 0.0670017 0.0505
1.25e-05 8.33333e-06 1.25e-05 1.25e-05 1.25e-05 1.25e-05 1.25e-05 1.25e-05 1.25e-05 1.25e-05 1.25e-05 1.25e-05 1.25e-05 1.25e-05 1.25e-05 1.25e-05 1.25e-05 1.25e-05 1.25e-05 1.25e-05 8.33333e-06 1.25e-05
0.5 1.66667 3 5 7 9 11 13 15 17 19 21 23 25 27 29 31 33 35 37 38.3333 39.5
0 0 0 0 0 0 0 0 0 0 0 0 0 0 0 0 0 0 0 0 0 0
0 0 0 0 0 0 0 0 0 0 0 0 0 0 0 0 0 0 0 0 0 0
0 0 0 0 0 0 0 0 0 0 0 0 0 0 0 0 0 0 0 0 0 0
0 0 0 0 0 0 0 0 0 0 0 0 0 0 0 0 0 0 0 0 0 0
0 0 0 0 0 0 0 0 0 0 0 0 0 0 0 0 0 0 0 0 0 0
0 0 0 0 0 0 0 0 0 0 0 0 0 0 0 0 0 0 0 0 0 0
0.5 0.66665 0.749988 0.749988 0.749988 0.749988 0.749988 0.749988 0.749988 0.749988 0.749988 0.749988 0.749988 0.749988 0.749988 0.749988 0.749988 0.749988 0.749988 0.749988 0.66665 0.5
0.5 0.33 0.2475 0.2475 0.2475 0.2475 0.2475 0.2475 0.2475 0.2475 0.2475 0.2475 0.2475 0.2475 0.2475 0.2475 0.2475 0.2475 0.2475 0.2475 0.33 0.5
0 0 0 0 0 0 0 0 0 0 0 0 0 0 0 0 0 0 0 0
0 0 0 0 0 0 0 0 0 0 0 0 0 0 0 0 0 0 0 0
0 0 0 0 0 0 0 0 0 0 0 0 0 0 0 0 0 0 0 0
0.0168333 0.0168333 0.0168333 0.0168333 0.0168333 0.0168333 0.0168333 0.0168333 0.0168333 0.0168333 0.0168333 0.0168333 0.0168333 0.0168333 0.0168333 0.0168333 0.0168333 0.0168333 0.0168333 0.0168333
8.33333e-06 8.33333e-06 8.33333e-06 8.33333e-06 8.33333e-06 8.33333e-06 8.33333e-06 8.33333e-06 8.33333e-06 8.33333e-06 8.33333e-06 8.33333e-06 8.33333e-06 8.33333e-06 8.33333e-06 8.33333e-06 8.33333e-06 8.33333e-06 8.33333e-06 8.33333e-06
1 3 2
2 3 4
3 5 4
4 5 6
5 7 6
6 7 8
7 9 8
8 9 10
9 11 10
10 11 12
11 13 12
12 13 14
13 15 14
14 15 16
15 17 16
16 17 18
17 19 18
18 19 20
19 21 20
20 21 22
ZONE T="gas2" NODES=22, ELEMENTS=20, DATAPACKING=BLOCK, ZONETYPE=FETRIANGLE, VARLOCATION=([30,31,32,33,34]=CELLCENTERED)
0 0 0.1 0.1 0.2 0.2 0.3 0.3 0.4 0.4 0.5 0.5 0.6 0.6 0.7 0.7 0.8 0.8 0.9 0.9 1 1
1 1.001 1 1.001 1 1.001 1 1.001 1 1.001 1 1.001 1 1.001 1 1.001 1 1.001 1 1.001 1 1.001
0 0 0 0 0 0 0 0 0 0 0 0 0 0 0 0 0 0 0 0 0 0
0 0 0 0 0 0 0 0 0 0 0 0 0 0 0 0 0 0 0 0 0 0
0 0 0 0 0 0 0 0 0 0 0 0 0 0 0 0 0 0 0 0 0 0
0 0 0 0 0 0 0 0 0 0 0 0 0 0 0 0 0 0 0 0 0 0
0 0 0 0 0 0 0 0 0 0 0 0 0 0 0 0 0 0 0 0 0 0
0 0 0 0 0 0 0 0 0 0 0 0 0 0 0 0 0 0 0 0 0 0
-1e+15 -1e+15 -1e+15 -1e+15 -1e+15 -1e+15 -1e+15 -1e+15 -1e+15 -1e+15 -1e+15 -1e+15 -1e+15 -1e+15 -1e+15 -1e+15 -1e+15 -1e+15 -1e+15 -1e+15 -1e+15 -1e+15
2.5e-05 2.5e-05 5e-05 5e-05 5e-05 5e-05 5e-05 5e-05 5e-05 5e-05 5e-05 5e-05 5e-05 5e-05 5e-05 5e-05 5e-05 5e-05 5e-05 5e-05 2.5e-05 2.5e-05
0 0 0 0 0 0 0 0 0 0 0 0 0 0 0 0 0 0 0 0 0 0
11 12 24 25 37 38 50 51 63 64 76 77 89 90 102 103 115 116 128 129 141 142
0 1 2 3 4 5 6 7 8 9 10 11 12 13 14 15 16 17 18 19 20 21
0 0 0 0 0 0 0 0 0 0 0 0 0 0 0 0 0 0 0 0 0 0
0 0 0 0 0 0 0 0 0 0 0 0 0 0 0 0 0 0 0 0 0 0
0 0 0 0 0 0 0 0 0 0 0 0 0 0 0 0 0 0 0 0 0 0
0.02525 0.0168333 0.02525 0.02525 0.02525 0.02525 0.02525 0.02525 0.02525 0.02525 0.02525 0.02525 0.02525 0.02525 0.02525 0.02525 0.02525 0.02525 0.02525 0.02525 0.0168333 0.02525
505 340 257.5 257.5 257.5 257.5 257.5 257.5 257.5 257.5 257.5 257.5 257.5 257.5 257.5 257.5 257.5 257.5 257.5 257.5 340 505
0.0505 0.0670017 0.0752512 0.0752512 0.0752512 0.0752512 0.0752512 0.0752512 0.0752512 0.0752512 0.0752512 0.0752512 0.0752512 0.0752512 0.0752512 0.0752512 0.0752512 0.0752512 0.0752512 0.0752512 0.0670017 0.0505
1.25e-05 8.33333e-06 1.25e-05 1.25e-05 1.25e-05 1.25e-05 1.25e-05 1.25e-05 1.25e-05 1.25e-05 1.25e-05 1.25e-05 1.25e-05 1.25e-05 1.25e-05 1.25e-05 1.25e-05 1.25e-05 1.25e-05 1.25e-05 8.33333e-06 1.25e-05
0.5 1.66667 3 5 7 9 11 13 15 17 19 21 23 25 27 29 31 33 35 37 38.3333 39.5
0 0 0 0 0 0 0 0 0 0 0 0 0 0 0 0 0 0 0 0 0 0
0 0 0 0 0 0 0 0 0 0 0 0 0 0 0 0 0 0 0 0 0 0
0 0 0 0 0 0 0 0 0 0 0 0 0 0 0 0 0 0 0 0 0 0
0 0 0 0 0 0 0 0 0 0 0 0 0 0 0 0 0 0 0 0 0 0
0 0 0 0 0 0 0 0 0 0 0 0 0 0 0 0 0 0 0 0 0 0
0 0 0 0 0 0 0 0 0 0 0 0 0 0 0 0 0 0 0 0 0 0
0.5 0.66665 0.749988 0.749988 0.749988 0.749988 0.749988 0.749988 0.749988 0.749988 0.749988 0.749988 0.749988 0.749988 0.749988 0.749988 0.749988 0.749988 0.749988 0.749988 0.66665 0.5
0.5 0.33 0.2475 0.2475 0.2475 0.2475 0.2475 0.2475 0.2475 0.2475 0.2475 0.2475 0.2475 0.2475 0.2475 0.2475 0.2475 0.2475 0.2475 0.2475 0.33 0.5
0 0 0 0 0 0 0 0 0 0 0 0 0 0 0 0 0 0 0 0
0 0 0 0 0 0 0 0 0 0 0 0 0 0 0 0 0 0 0 0
0 0 0 0 0 0 0 0 0 0 0 0 0 0 0 0 0 0 0 0
0.0168333 0.0168333 0.0168333 0.0168333 0.0168333 0.0168333 0.0168333 0.0168333 0.0168333 0.0168333 0.0168333 0.0168333 0.0168333 0.0168333 0.0168333 0.0168333 0.0168333 0.0168333 0.0168333 0.0168333
8.33333e-06 8.33333e-06 8.33333e-06 8.33333e-06 8.33333e-06 8.33333e-06 8.33333e-06 8.33333e-06 8.33333e-06 8.33333e-06 8.33333e-06 8.33333e-06 8.33333e-06 8.33333e-06 8.33333e-06 8.33333e-06 8.33333e-06 8.33333e-06 8.33333e-06 8.33333e-06
1 3 2
2 3 4
3 5 4
4 5 6
5 7 6
6 7 8
7 9 8
8 9 10
9 11 10
10 11 12
11 13 12
12 13 14
13 15 14
14 15 16
15 17 16
16 17 18
17 19 18
18 19 20
19 21 20
20 21 22
ZONE T="r0" NODES=66, ELEMENTS=100, DATAPACKING=BLOCK, ZONETYPE=FETRIANGLE, VARLOCATION=([30,31,32,33,34]=CELLCENTERED)
0 0 0.1 0.1 0 0.1 0 0.1 0 0.1 0 0.1 0.2 0.2 0.2 0.2 0.2 0.2 0.3 0.3 0.3 0.3 0.3 0.3 0.4 0.4 0.4 0.4 0.4 0.4 0.5 0.5 0.5 0.5 0.5 0.5 0.6 0.6 0.6 0.6 0.6 0.6 0.7 0.7 0.7 0.7 0.7 0.7 0.8 0.8 0.8 0.8 0.8 0.8 0.9 0.9 0.9 0.9 0.9 0.9 1 1 1 1 1 1
0 0.1 0 0.1 0.2 0.2 0.3 0.3 0.4 0.4 0.5 0.5 0 0.1 0.2 0.3 0.4 0.5 0 0.1 0.2 0.3 0.4 0.5 0 0.1 0.2 0.3 0.4 0.5 0 0.1 0.2 0.3 0.4 0.5 0 0.1 0.2 0.3 0.4 0.5 0 0.1 0.2 0.3 0.4 0.5 0 0.1 0.2 0.3 0.4 0.5 0 0.1 0.2 0.3 0.4 0.5 0 0.1 0.2 0.3 0.4 0.5
1 0 1 0 0 0 0 0 0 0 0 0 1 0 0 0 0 0 1 0 0 0 0 0 1 0 0 0 0 0 1 0 0 0 0 0 1 0 0 0 0 0 1 0 0 0 0 0 1 0 0 0 0 0 1 0 0 0 0 0 1 0 0 0 0 0
0.05 0 0.1 0 0 0 0 0 0 0 0 0 0.1 0 0 0 0 0 0.1 0 0 0 0 0 0.1 0 0 0 0 0 0.1 0 0 0 0 0 0.1 0 0 0 0 0 0.1 0 0 0 0 0 0.1 0 0 0 0 0 0.1 0 0 0 0 0 0.05 0 0 0 0 0
0.000654498 0.001309 0.00366519 0.00733038 0.001309 0.00733038 0.001309 0.00733038 0.001309 0.00733038 0.000654498 0.00366519 0.00680678 0.0136136 0.0136136 0.0136136 0.0136136 0.00680678 0.00994838 0.0198968 0.0198968 0.0198968 0.0198968 0.00994838 0.01309 0.0261799 0.0261799 0.0261799 0.0261799 0.01309 0.0162316 0.0324631 0.0324631 0.0324631 0.0324631 0.0162316 0.0193732 0.0387463 0.0387463 0.0387463 0.0387463 0.0193732 0.0225147 0.0450295 0.0450295 0.0450295 0.0450295 0.0225147 0.0256563 0.0513127 0.0513127 0.0513127 0.0513127 0.0256563 0.0287979 0.0575959 0.0575959 0.0575959 0.0575959 0.0287979 0.0155771 0.0311541 0.0311541 0.0311541 0.0311541 0.0155771
0.00785398 0 0.0628319 0 0 0 0 0 0 0 0.00785398 0.0628319 0.125664 0 0 0 0 0.125664 0.188496 0 0 0 0 0.188496 0.251327 0 0 0 0 0.251327 0.314159 0 0 0 0 0.314159 0.376991 0 0 0 0 0.376991 0.439823 0 0 0 0 0.439823 0.502655 0 0 0 0 0.502655 0.565487 0 0 0 0 0.565487 0.306305 0 0 0 0 0.306305
0 0 0 0 0 0 0 0 0 0 0 0 0 0 0 0 0 0 0 0 0 0 0 0 0 0 0 0 0 0 0 0 0 0 0 0 0 0 0 0 0 0 0 0 0 0 0 0 0 0 0 0 0 0 0 0 0 0 0 0 0 0 0 0 0 0
0 0 0 0 0 0 0 0 0 0 -1 -1 0 0 0 0 0 -1 0 0 0 0 0 -1 0 0 0 0 0 -1 0 0 0 0 0 -1 0 0 0 0 0 -1 0 0 0 0 0 -1 0 0 0 0 0 -1 0 0 0 0 0 -1 0 0 0 0 0 -1
1e+18 1e+18 1e+18 1e+18 1e+18 1e+18 1e+18 1e+18 1e+18 1e+18 1e+18 1e+18 1e+18 1e+18 1e+18 1e+18 1e+18 1e+18 1e+18 1e+18 1e+18 1e+18 1e+18 1e+18 1e+18 1e+18 1e+18 1e+18 1e+18 1e+18 1e+18 1e+18 1e+18 1e+18 1e+18 1e+18 1e+18 1e+18 1e+18 1e+18 1e+18 1e+18 1e+18 1e+18 1e+18 1e+18 1e+18 1e+18 1e+18 1e+18 1e+18 1e+18 1e+18 1e+18 1e+18 1e+18 1e+18 1e+18 1e+18 1e+18 1e+18 1e+18 1e+18 1e+18 1e+18 1e+18
0.0025 0.005 0.005 0.01 0.005 0.01 0.005 0.01 0.005 0.01 0.0025 0.005 0.005 0.01 0.01 0.01 0.01 0.005 0.005 0.01 0.01 0.01 0.01 0.005 0.005 0.01 0.01 0.01 0.01 0.005 0.005 0.01 0.01 0.01 0.01 0.005 0.005 0.01 0.01 0.01 0.01 0.005 0.005 0.01 0.01 0.01 0.01 0.005 0.005 0.01 0.01 0.01 0.01 0.005 0.005 0.01 0.01 0.01 0.01 0.005 0.0025 0.005 0.005 0.005 0.005 0.0025
0 0 0 0 0 0 0 0 0 0 0.05 0.1 0 0 0 0 0 0.1 0 0 0 0 0 0.1 0 0 0 0 0 0.1 0 0 0 0 0 0.1 0 0 0 0 0 0.1 0 0 0 0 0 0.1 0 0 0 0 0 0.1 0 0 0 0 0 0.1 0 0 0 0 0 0.05
1 2 14 15 3 16 4 17 5 18 6 19 27 28 29 30 31 32 40 41 42 43 44 45 53 54 55 56 57 58 66 67 68 69 70 71 79 80 81 82 83 84 92 93 94 95 96 97 105 106 107 108 109 110 118 119 120 121 122 123 131 132 133 134 135 136
0 1 2 3 4 5 6 7 8 9 10 11 12 13 14 15 16 17 18 19 20 21 22 23 24 25 26 27 28 29 30 31 32 33 34 35 36 37 38 39 40 41 42 43 44 45 46 47 48 49 50 51 52 53 54 55 56 57 58 59 60 61 62 63 64 65
0.011781 0.011781 0.0314159 0.0418879 0.011781 0.0418879 0.011781 0.0418879 0.011781 0.0418879 0.00785398 0.0314159 0.0628319 0.0837758 0.0837758 0.0837758 0.0837758 0.0628319 0.0942478 0.125664 0.125664 0.125664 0.125664 0.0942478 0.125664 0.167552 0.167552 0.167552 0.167552 0.125664 0.15708 0.20944 0.20944 0.20944 0.20944 0.15708 0.188496 0.251327 0.251327 0.251327 0.251327 0.188496 0.219911 0.293215 0.293215 0.293215 0.293215 0.219911 0.251327 0.335103 0.335103 0.335103 0.335103 0.251327 0.282743 0.376991 0.376991 0.376991 0.376991 0.282743 0.201586 0.302378 0.302378 0.302378 0.302378 0.302378
0 0 0 0 0 0 0 0 0 0 0 0 0 0 0 0 0 0 0 0 0 0 0 0 0 0.00231256 0.00340339 0.00340339 0.00340339 0.00255254 0.00314159 0.00541052 0.00541052 0.00541052 0.00541052 0.00405789 0.00484329 0.00645772 0.00645772 0.00645772 0.00645772 0.00484329 0.00562869 0.00750492 0.00750492 0.00750492 0.00750492 0.00562869 0.00641409 0.00855211 0.00855211 0.00855211 0.00855211 0.00641409 0.00719948 0.00959931 0.00959931 0.00959931 0.00959931 0.00719948 0.00519235 0.00778853 0.00778853 0.00778853 0.00778853 0.00778853
0.000327249 0.000327249 0.000916298 0.00122173 0.000327249 0.00122173 0.000327249 0.00122173 0.000327249 0.00122173 0.000218166 0.000916298 0.0017017 0.00226893 0.00226893 0.00226893 0.00226893 0.0017017 0.00248709 0.00331613 0.00331613 0.00331613 0.00331613 0.00248709 0.00327249 0.00436332 0.00436332 0.00436332 0.00436332 0.00327249 0.00405789 0.00541052 0.00541052 0.00541052 0.00541052 0.00405789 0.00484329 0.00645772 0.00645772 0.00645772 0.00645772 0.00484329 0.00562869 0.00750492 0.00750492 0.00750492 0.00750492 0.00562869 0.00641409 0.00855211 0.00855211 0.00855211 0.00855211 0.00641409 0.00719948 0.00959931 0.00959931 0.00959931 0.00959931 0.00719948 0.00519235 0.00778853 0.00778853 0.00778853 0.00778853 0.00778853
0.05 0.05 0.05 0.0666667 0.05 0.0666667 0.05 0.0666667 0.05 0.0666667 0.0333333 0.05 0.05 0.0666667 0.0666667 0.0666667 0.0666667 0.05 0.05 0.0666667 0.0666667 0.0666667 0.0666667 0.05 0.05 0.0666667 0.0666667 0.0666667 0.0666667 0.05 0.05 0.0666667 0.0666667 0.0666667 0.0666667 0.05 0.05 0.0666667 0.0666667 0.0666667 0.0666667 0.05 0.05 0.0666667 0.0666667 0.0666667 0.0666667 0.05 0.05 0.0666667 0.0666667 0.0666667 0.0666667 0.05 0.05 0.0666667 0.0666667 0.0666667 0.0666667 0.05 0.0333333 0.05 0.05 0.05 0.05 0.05
10 9.26777 9.26777 9.02369 9.26777 9.02369 9.26777 9.02369 9.26777 9.02369 9.02369 9.26777 9.26777 9.02369 9.02369 9.02369 9.02369 9.26777 9.26777 9.02369 9.02369 9.02369 9.02369 9.26777 9.26777 9.02369 9.02369 9.02369 9.02369 9.26777 9.26777 9.02369 9.02369 9.02369 9.02369 9.26777 9.26777 9.02369 9.02369 9.02369 9.02369 9.26777 9.26777 9.02369 9.02369 9.02369 9.02369 9.26777 9.26777 9.02369 9.02369 9.02369 9.02369 9.26777 9.26777 9.02369 9.02369 9.02369 9.02369 9.26777 9.02369 9.26777 9.26777 9.26777 9.26777 10
0.1 0.110355 0.110355 0.113807 0.110355 0.113807 0.110355 0.113807 0.110355 0.113807 0.113807 0.110355 0.110355 0.113807 0.113807 0.113807 0.113807 0.110355 0.110355 0.113807 0.113807 0.113807 0.113807 0.110355 0.110355 0.113807 0.113807 0.113807 0.113807 0.110355 0.110355 0.113807 0.113807 0.113807 0.113807 0.110355 0.110355 0.113807 0.113807 0.113807 0.113807 0.110355 0.110355 0.113807 0.113807 0.113807 0.113807 0.110355 0.110355 0.113807 0.113807 0.113807 0.113807 0.110355 0.110355 0.113807 0.113807 0.113807 0.113807 0.110355 0.113807 0.110355 0.110355 0.110355 0.110355 0.1
0.00125 0.00125 0.00125 0.00166667 0.00125 0.00166667 0.00125 0.00166667 0.00125 0.00166667 0.000833333 0.00125 0.00125 0.00166667 0.00166667 0.00166667 0.00166667 0.00125 0.00125 0.00166667 0.00166667 0.00166667 0.00166667 0.00125 0.00125 0.00166667 0.00166667 0.00166667 0.00166667 0.00125 0.00125 0.00166667 0.00166667 0.00166667 0.00166667 0.00125 0.00125 0.00166667 0.00166667 0.00166667 0.00166667 0.00125 0.00125 0.00166667 0.00166667 0.00166667 0.00166667 0.00125 0.00125 0.00166667 0.00166667 0.00166667 0.00166667 0.00125 0.00125 0.00166667 0.00166667 0.00166667 0.00166667 0.00125 0.000833333 0.00125 0.00125 0.00125 0.00125 0.00125
0.5 2.25 3.5 7 8.5 12.8333 15 18.8333 21 24.8333 26 29 20 27 30.8333 34.8333 38.3333 41.75 41.25 45.8333 48.6667 51.6667 54.5 57.75 57.25 61.8333 64.6667 67.6667 70.5 73.75 73.25 77.8333 80.6667 83.6667 86.5 89.75 89.25 93.8333 96.6667 99.6667 102.5 105.75 105.25 109.833 112.667 115.667 118.5 121.75 121.25 125.833 128.667 131.667 134.5 137.75 137.25 141.833 144.667 147.667 150.5 153.75 150.667 154.75 156.75 158.75 160.5 161.5
0.476247 0.413971 0.476939 0.402091 0.314423 0.302797 0.215277 0.204229 0.117479 0.108739 0.0569036 0.0551777 0.476939 0.402091 0.302797 0.204229 0.108739 0.0551777 0.476939 0.402091 0.302797 0.204229 0.108739 0.0551777 0.476939 0.402091 0.302797 0.204229 0.108739 0.0551777 0.476939 0.402091 0.302797 0.204229 0.108739 0.0551777 0.476939 0.402091 0.302797 0.204229 0.108739 0.0551777 0.476939 0.402091 0.302797 0.204229 0.108739 0.0551777 0.476939 0.402091 0.302797 0.204229 0.108739 0.0551777 0.476939 0.402091 0.302797 0.204229 0.108739 0.0551777 0.468421 0.389167 0.289772 0.191067 0.0956285 0.05
0 0 0 0 0 0 0 0 0 0 0 0 0 0 0 0 0 0 0 0 0 0 0 0 0 0 0 0 0 0 0 0 0 0 0 0 0 0 0 0 0 0 0 0 0 0 0 0 0 0 0 0 0 0 0 0 0 0 0 0 0 0 0 0 0 0
1 1 1 1 1 1 1 1 1 1 0.333333 0 1 1 1 1 1 0 1 1 1 1 1 0 1 1 1 1 1 0 1 1 1 1 1 0 1 1 1 1 1 0 1 1 1 1 1 0 1 1 1 1 1 0 1 1 1 1 1 0 1 1 1 1 1 0
0 0 0 0 0 0 0 0 0 0 0 0 0 0 0 0 0 0 0 0 0 0 0 0 0 0 0 0 0 0 0 0 0 0 0 0 0 0 0 0 0 0 0 0 0 0 0 0 0 0 0 0 0 0 0 0 0 0 0 0 0 0 0 0 0 0
0 0 0 0 0 0 0 0 0 0 0 0 0 0 0 0 0 0 0 0 0 0 0 0 0 0 0 0 0 0 0 0 0 0 0 0 0 0 0 0 0 0 0 0 0 0 0 0 0 0 0 0 0 0 0 0 0 0 0 0 0 0 0 0 0 0
0 0 0 0 0 0 0 0 0 0 0 0 0 0 0 0 0 0 0 0 0 0 0 0 0 0 0 0 0 0 0 0 0 0 0 0 0 0 0 0 0 0 0 0 0 0 0 0 0 0 0 0 0 0 0 0 0 0 0 0 0 0 0 0 0 0
0.5 0.426777 0.676777 0.333333 0.0732233 0.333333 0.0732233 0.333333 0.0732233 0.333333 0.0976311 0.676777 0.676777 0.569036 0.569036 0.569036 0.569036 0.676777 0.676777 0.569036 0.569036 0.569036 0.569036 0.676777 0.676777 0.569036 0.569036 0.569036 0.569036 0.676777 0.676777 0.569036 0.569036 0.569036 0.569036 0.676777 0.676777 0.569036 0.569036 0.569036 0.569036 0.676777 0.676777 0.569036 0.569036 0.569036 0.569036 0.676777 0.676777 0.569036 0.569036 0.569036 0.569036 0.676777 0.676777 0.569036 0.569036 0.569036 0.569036 0.676777 0.569036 0.426777 0.426777 0.426777 0.426777 0.5
0.5 0.323223 0.0732233 0.333333 0.676777 0.333333 0.676777 0.333333 0.676777 0.333333 0.569036 0.0732233 0.0732233 0.0976311 0.0976311 0.0976311 0.0976311 0.0732233 0.0732233 0.0976311 0.0976311 0.0976311 0.0976311 0.0732233 0.0732233 0.0976311 0.0976311 0.0976311 0.0976311 0.0732233 0.0732233 0.0976311 0.0976311 0.0976311 0.0976311 0.0732233 0.0732233 0.0976311 0.0976311 0.0976311 0.0976311 0.0732233 0.0732233 0.0976311 0.0976311 0.0976311 0.0976311 0.0732233 0.0732233 0.0976311 0.0976311 0.0976311 0.0976311 0.0732233 0.0732233 0.0976311 0.0976311 0.0976311 0.0976311 0.0732233 0.0976311 0.323223 0.323223 0.323223 0.323223 0.5
0.00785398 0.01309 0.00785398 0.0287979 0.01309 0.0287979 0.0340339 0.00785398 0.01309 0.0287979 0.0340339 0.00785398 0.01309 0.0287979 0.0340339 0.00785398 0.01309 0.0287979 0.0340339 0.0340339 0.0497419 0.0497419 0.0549779 0.0497419 0.0549779 0.0497419 0.0549779 0.0497419 0.0549779 0.0549779 0.0706858 0.0706858 0.0759218 0.0706858 0.0759218 0.0706858 0.0759218 0.0706858 0.0759218 0.0759218 0.0916298 0.0916298 0.0968658 0.0916298 0.0968658 0.0916298 0.0968658 0.0916298 0.0968658 0.0968658 0.112574 0.112574 0.11781 0.112574 0.11781 0.112574 0.11781 0.112574 0.11781 0.11781 0.133518 0.133518 0.138754 0.133518 0.138754 0.133518 0.138754 0.133518 0.138754 0.138754 0.154462 0.154462 0.159698 0.154462 0.159698 0.154462 0.159698 0.154462 0.159698 0.159698 0.175406 0.175406 0.180642 0.175406 0.180642 0.175406 0.180642 0.175406 0.180642 0.180642 0.19635 0.19635 0.201586 0.19635 0.201586 0.19635 0.201586 0.19635 0.201586 0.201586
0.000218166 0.000479966 0.000218166 0.000741765 0.000479966 0.000741765 0.00100356 0.000218166 0.000479966 0.000741765 0.00100356 0.000218166 0.000479966 0.000741765 0.00100356 0.000218166 0.000479966 0.000741765 0.00100356 0.00100356 0.00126536 0.00126536 0.00152716 0.00126536 0.00152716 0.00126536 0.00152716 0.00126536 0.00152716 0.00152716 0.00178896 0.00178896 0.00205076 0.00178896 0.00205076 0.00178896 0.00205076 0.00178896 0.00205076 0.00205076 0.00231256 0.00231256 0.00257436 0.00231256 0.00257436 0.00231256 0.00257436 0.00231256 0.00257436 0.00257436 0.00283616 0.00283616 0.00309796 0.00283616 0.00309796 0.00283616 0.00309796 0.00283616 0.00309796 0.00309796 0.00335976 0.00335976 0.00362156 0.00335976 0.00362156 0.00335976 0.00362156 0.00335976 0.00362156 0.00362156 0.00388336 0.00388336 0.00414516 0.00388336 0.00414516 0.00388336 0.00414516 0.00388336 0.00414516 0.00414516 0.00440696 0.00440696 0.00466876 0.00440696 0.00466876 0.00440696 0.00466876 0.00440696 0.00466876 0.00466876 0.00493056 0.00493056 0.00519235 0.00493056 0.00519235 0.00493056 0.00519235 0.00493056 0.00519235 0.00519235
0.000218166 0.000479966 0.000218166 0.000741765 0.000479966 0.000741765 0.00100356 0.000218166 0.000479966 0.000741765 0.00100356 0.000218166 0.000479966 0.000741765 0.00100356 0.000218166 0.000479966 0.000741765 0.00100356 0.00100356 0.00126536 0.00126536 0.00152716 0.00126536 0.00152716 0.00126536 0.00152716 0.00126536 0.00152716 0.00152716 0.00178896 0.00178896 0.00205076 0.00178896 0.00205076 0.00178896 0.00205076 0.00178896 0.00205076 0.00205076 0.00231256 0.00231256 0.00257436 0.00231256 0.00257436 0.00231256 0.00257436 0.00231256 0.00257436 0.00257436 0.00283616 0.00283616 0.00309796 0.00283616 0.00309796 0.00283616 0.00309796 0.00283616 0.00309796 0.00309796 0.00335976 0.00335976 0.00362156 0.00335976 0.00362156 0.00335976 0.00362156 0.00335976 0.00362156 0.00362156 0.00388336 0.00388336 0.00414516 0.00388336 0.00414516 0.00388336 0.00414516 0.00388336 0.00414516 0.00414516 0.00440696 0.00440696 0.00466876 0.00440696 0.00466876 0.00440696 0.00466876 0.00440696 0.00466876 0.00466876 0.00493056 0.00493056 0.00519235 0.00493056 0.00519235 0.00493056 0.00519235 0.00493056 0.00519235 0.00519235
0.0333333 0.0333333 0.0333333 0.0333333 0.0333333 0.0333333 0.0333333 0.0333333 0.0333333 0.0333333 0.0333333 0.0333333 0.0333333 0.0333333 0.0333333 0.0333333 0.0333333 0.0333333 0.0333333 0.0333333 0.0333333 0.0333333 0.0333333 0.0333333 0.0333333 0.0333333 0.0333333 0.0333333 0.0333333 0.0333333 0.0333333 0.0333333 0.0333333 0.0333333 0.0333333 0.0333333 0.0333333 0.0333333 0.0333333 0.0333333 0.0333333 0.0333333 0.0333333 0.0333333 0.0333333 0.0333333 0.0333333 0.0333333 0.0333333 0.0333333 0.0333333 0.0333333 0.0333333 0.0333333 0.0333333 0.0333333 0.0333333 0.0333333 0.0333333 0.0333333 0.0333333 0.0333333 0.0333333 0.0333333 0.0333333 0.0333333 0.0333333 0.0333333 0.0333333 0.0333333 0.0333333 0.0333333 0.0333333 0.0333333 0.0333333 0.0333333 0.0333333 0.0333333 0.0333333 0.0333333 0.0333333 0.0333333 0.0333333 0.0333333 0.0333333 0.0333333 0.0333333 0.0333333 0.0333333 0.0333333 0.0333333 0.0333333 0.0333333 0.0333333 0.0333333 0.0333333 0.0333333 0.0333333 0.0333333 0.0333333
0.000833333 0.000833333 0.000833333 0.000833333 0.000833333 0.000833333 0.000833333 0.000833333 0.000833333 0.000833333 0.000833333 0.000833333 0.000833333 0.000833333 0.000833333 0.000833333 0.000833333 0.000833333 0.000833333 0.000833333 0.000833333 0.000833333 0.000833333 0.000833333 0.000833333 0.000833333 0.000833333 0.000833333 0.000833333 0.000833333 0.000833333 0.000833333 0.000833333 0.000833333 0.000833333 0.000833333 0.000833333 0.000833333 0.000833333 0.000833333 0.000833333 0.000833333 0.000833333 0.000833333 0.000833333 0.000833333 0.000833333 0.000833333 0.000833333 0.000833333 0.000833333 0.000833333 0.000833333 0.000833333 0.000833333 0.000833333 0.000833333 0.000833333 0.000833333 0.000833333 0.000833333 0.000833333 0.000833333 0.000833333 0.000833333 0.000833333 0.000833333 0.000833333 0.000833333 0.000833333 0.000833333 0.000833333 0.000833333 0.000833333 0.000833333 0.000833333 0.000833333 0.000833333 0.000833333 0.000833333 0.000833333 0.000833333 0.000833333 0.000833333 0.000833333 0.000833333 0.000833333 0.000833333 0.000833333 0.000833333 0.000833333 0.000833333 0.000833333 0.000833333 0.000833333 0.000833333 0.000833333 0.000833333 0.000833333 0.000833333
1 3 2
2 3 4
2 4 5
3 13 4
4 6 5
4 14 6
4 13 14
5 6 7
6 8 7
6 15 8
6 14 15
7 8 9
8 10 9
8 16 10
8 15 16
9 10 11
10 12 11
10 17 12
10 16 17
12 17 18
13 19 14
14 20 15
14 19 20
15 21 16
15 20 21
16 22 17
16 21 22
17 23 18
17 22 23
18 23 24
19 25 20
20 26 21
20 25 26
21 27 22
21 26 27
22 28 23
22 27 28
23 29 24
23 28 29
24 29 30
25 31 26
26 32 27
26 31 32
27 33 28
27 32 33
28 34 29
28 33 34
29 35 30
29 34 35
30 35 36
31 37 32
32 38 33
32 37 38
33 39 34
33 38 39
34 40 35
34 39 40
35 41 36
35 40 41
36 41 42
37 43 38
38 44 39
38 43 44
39 45 40
39 44 45
40 46 41
40 45 46
41 47 42
41 46 47
42 47 48
43 49 44
44 50 45
44 49 50
45 51 46
45 50 51
46 52 47
46 51 52
47 53 48
47 52 53
48 53 54
49 55 50
50 56 51
50 55 56
51 57 52
51 56 57
52 58 53
52 57 58
53 59 54
53 58 59
54 59 60
55 61 56
56 62 57
56 61 62
57 63 58
57 62 63
58 64 59
58 63 64
59 65 60
59 64 65
60 65 66
ZONE T="r1" NODES=22, ELEMENTS=20, DATAPACKING=BLOCK, ZONETYPE=FETRIANGLE, VARLOCATION=([30,31,32,33,34]=CELLCENTERED)
0 0 0.1 0.1 0.2 0.2 0.3 0.3 0.4 0.4 0.5 0.5 0.6 0.6 0.7 0.7 0.8 0.8 0.9 0.9 1 1
0.5 0.6 0.5 0.6 0.5 0.6 0.5 0.6 0.5 0.6 0.5 0.6 0.5 0.6 0.5 0.6 0.5 0.6 0.5 0.6 0.5 0.6
0 0 0 0 0 0 0 0 0 0 0 0 0 0 0 0 0 0 0 0 0 0
0 0 0 0 0 0 0 0 0 0 0 0 0 0 0 0 0 0 0 0 0 0
0.000654498 0.000654498 0.00366519 0.00366519 0.00680678 0.00680678 0.00994838 0.00994838 0.01309 0.01309 0.0162316 0.0162316 0.0193732 0.0193732 0.0225147 0.0225147 0.0256563 0.0256563 0.0287979 0.0287979 0.0155771 0.0155771
0.00785398 0.00785398 0.0628319 0.0628319 0.125664 0.125664 0.188496 0.188496 0.251327 0.251327 0.314159 0.314159 0.376991 0.376991 0.439823 0.439823 0.502655 0.502655 0.565487 0.565487 0.306305 0.306305
0 0 0 0 0 0 0 0 0 0 0 0 0 0 0 0 0 0 0 0 0 0
-1 -1 -1 -1 -1 -1 -1 -1 -1 -1 -1 -1 -1 -1 -1 -1 -1 -1 -1 -1 -1 -1
-1e+15 -1e+15 -1e+15 -1e+15 -1e+15 -1e+15 -1e+15 -1e+15 -1e+15 -1e+15 -1e+15 -1e+15 -1e+15 -1e+15 -1e+15 -1e+15 -1e+15 -1e+15 -1e+15 -1e+15 -1e+15 -1e+15
0.0025 0.0025 0.005 0.005 0.005 0.005 0.005 0.005 0.005 0.005 0.005 0.005 0.005 0.005 0.005 0.005 0.005 0.005 0.005 0.005 0.0025 0.0025
0.05 0.05 0.1 0.1 0.1 0.1 0.1 0.1 0.1 0.1 0.1 0.1 0.1 0.1 0.1 0.1 0.1 0.1 0.1 0.1 0.05 0.05
6 7 19 20 32 33 45 46 58 59 71 72 84 85 97 98 110 111 123 124 136 137
0 1 2 3 4 5 6 7 8 9 10 11 12 13 14 15 16 17 18 19 20 21
0.011781 0.00785398 0.0314159 0.0314159 0.0628319 0.0628319 0.0942478 0.0942478 0.125664 0.125664 0.15708 0.15708 0.188496 0.188496 0.219911 0.219911 0.251327 0.251327 0.282743 0.282743 0.201586 0.302378
0 0 0 0 0 0 0 0 0 0 0 0.00111265 0.00373064 0.00484329 0.00562869 0.00562869 0.00641409 0.00641409 0.00719948 0.00719948 0.00519235 0.00778853
0.000327249 0.000218166 0.000916298 0.000916298 0.0017017 0.0017017 0.00248709 0.00248709 0.00327249 0.00327249 0.00405789 0.00405789 0.00484329 0.00484329 0.00562869 0.00562869 0.00641409 0.00641409 0.00719948 0.00719948 0.00519235 0.00778853
0.05 0.0333333 0.05 0.05 0.05 0.05 0.05 0.05 0.05 0.05 0.05 0.05 0.05 0.05 0.05 0.05 0.05 0.05 0.05 0.05 0.0333333 0.05
10 9.02369 9.26777 9.26777 9.26777 9.26777 9.26777 9.26777 9.26777 9.26777 9.26777 9.26777 9.26777 9.26777 9.26777 9.26777 9.26777 9.26777 9.26777 9.26777 9.02369 10
0.1 0.113807 0.110355 0.110355 0.110355 0.110355 0.110355 0.110355 0.110355 0.110355 0.110355 0.110355 0.110355 0.110355 0.110355 0.110355 0.110355 0.110355 0.110355 0.110355 0.113807 0.1
0.00125 0.000833333 0.00125 0.00125 0.00125 0.00125 0.00125 0.00125 0.00125 0.00125 0.00125 0.00125 0.00125 0.00125 0.00125 0.00125 0.00125 0.00125 0.00125 0.00125 0.000833333 0.00125
0.5 1.66667 3 5 7 9 11 13 15 17 19 21 23 25 27 29 31 33 35 37 38.3333 39.5
0.05 0.0775047 0.0551777 0.0860794 0.0551777 0.0860794 0.0551777 0.0860794 0.0551777 0.0860794 0.0551777 0.0860794 0.0551777 0.0860794 0.0551777 0.0860794 0.0551777 0.0860794 0.0551777 0.0860794 0.0569036 0.0809017
0 0 0 0 0 0 0 0 0 0 0 0 0 0 0 0 0 0 0 0 0 0
-1 -1 -1 -1 -1 -1 -1 -1 -1 -1 -1 -1 -1 -1 -1 -1 -1 -1 -1 -1 -1 -1
0.0809017 0.0569036 0.0860794 0.0551777 0.0860794 0.0551777 0.0860794 0.0551777 0.0860794 0.0551777 0.0860794 0.0551777 0.0860794 0.0551777 0.0860794 0.0551777 0.0860794 0.0551777 0.0860794 0.0551777 0.0775047 0.05
0 0 0 0 0 0 0 0 0 0 0 0 0 0 0 0 0 0 0 0 0 0
1 0.333333 1 0 1 0 1 0 1 0 1 0 1 0 1 0 1 0 1 0 1 0
0.5 0.569036 0.676777 0.676777 0.676777 0.676777 0.676777 0.676777 0.676777 0.676777 0.676777 0.676777 0.676777 0.676777 0.676777 0.676777 0.676777 0.676777 0.676777 0.676777 0.569036 0.5
0.5 0.0976311 0.0732233 0.0732233 0.0732233 0.0732233 0.0732233 0.0732233 0.0732233 0.0732233 0.0732233 0.0732233 0.0732233 0.0732233 0.0732233 0.0732233 0.0732233 0.0732233 0.0732233 0.0732233 0.0976311 0.5
0.00785398 0.01309 0.0287979 0.0340339 0.0497419 0.0549779 0.0706858 0.0759218 0.0916298 0.0968658 0.112574 0.11781 0.133518 0.138754 0.154462 0.159698 0.175406 0.180642 0.19635 0.201586
0.000218166 0.000479966 0.000741765 0.00100356 0.00126536 0.00152716 0.00178896 0.00205076 0.00231256 0.00257436 0.00283616 0.00309796 0.00335976 0.00362156 0.00388336 0.00414516 0.00440696 0.00466876 0.00493056 0.00519235
0.000218166 0.000479966 0.000741765 0.00100356 0.00126536 0.00152716 0.00178896 0.00205076 0.00231256 0.00257436 0.00283616 0.00309796 0.00335976 0.00362156 0.00388336 0.00414516 0.00440696 0.00466876 0.00493056 0.00519235
0.0333333 0.0333333 0.0333333 0.0333333 0.0333333 0.0333333 0.0333333 0.0333333 0.0333333 0.0333333 0.0333333 0.0333333 0.0333333 0.0333333 0.0333333 0.0333333 0.0333333 0.0333333 0.0333333 0.0333333
0.000833333 0.000833333 0.000833333 0.000833333 0.000833333 0.000833333 0.000833333 0.000833333 0.000833333 0.000833333 0.000833333 0.000833333 0.000833333 0.000833333 0.000833333 0.000833333 0.000833333 0.000833333 0.000833333 0.000833333
1 3 2
2 3 4
3 5 4
4 5 6
5 7 6
6 7 8
7 9 8
8 9 10
9 11 10
10 11 12
11 13 12
12 13 14
13 15 14
14 15 16
15 17 16
16 17 18
17 19 18
18 19 20
19 21 20
20 21 22
ZONE T="r2" NODES=55, ELEMENTS=80, DATAPACKING=BLOCK, ZONETYPE=FETRIANGLE, VARLOCATION=([30,31,32,33,34]=CELLCENTERED)
0 0 0.1 0.1 0 0.1 0 0.1 0 0.1 0.2 0.2 0.2 0.2 0.2 0.3 0.3 0.3 0.3 0.3 0.4 0.4 0.4 0.4 0.4 0.5 0.5 0.5 0.5 0.5 0.6 0.6 0.6 0.6 0.6 0.7 0.7 0.7 0.7 0.7 0.8 0.8 0.8 0.8 0.8 0.9 0.9 0.9 0.9 0.9 1 1 1 1 1
0.6 0.7 0.6 0.7 0.8 0.8 0.9 0.9 1 1 0.6 0.7 0.8 0.9 1 0.6 0.7 0.8 0.9 1 0.6 0.7 0.8 0.9 1 0.6 0.7 0.8 0.9 1 0.6 0.7 0.8 0.9 1 0.6 0.7 0.8 0.9 1 0.6 0.7 0.8 0.9 1 0.6 0.7 0.8 0.9 1 0.6 0.7 0.8 0.9 1
0 0 0 0 0 0 0 0 1 1 0 0 0 0 1 0 0 0 0 1 0 0 0 0 1 0 0 0 0 1 0 0 0 0 1 0 0 0 0 1 0 0 0 0 1 0 0 0 0 1 0 0 0 0 1
0 0 0 0 0 0 0 0 0.05 0.1 0 0 0 0 0.1 0 0 0 0 0.1 0 0 0 0 0.1 0 0 0 0 0.1 0 0 0 0 0.1 0 0 0 0 0.1 0 0 0 0 0.1 0 0 0 0 0.1 0 0 0 0 0.05