TITLE = "MyDevice"
VARIABLES = "x", "y", "AtContactNode", "ContactSurfaceArea", "Electrons", "Electrons_prev", "IntrinsicCharge", "IntrinsicCharge:Potential", "IntrinsicElectrons", "NCharge", "NCharge:Electrons", "NSurfaceNormal_x", "NSurfaceNormal_y", "NetDoping", "NodeVolume", "Potential", "PotentialNodeCharge", "PotentialNodeCharge:Electrons", "Potential_prev", "SurfaceArea", "V1.I_ElectronContinuityEquation_imag", "V1.I_ElectronContinuityEquation_imag_gradx", "V1.I_ElectronContinuityEquation_imag_grady", "V1.I_ElectronContinuityEquation_real", "V1.I_ElectronContinuityEquation_real_gradx", "V1.I_ElectronContinuityEquation_real_grady", "V1.I_PotentialEquation_imag", "V1.I_PotentialEquation_imag_gradx", "V1.I_PotentialEquation_imag_grady", "V1.I_PotentialEquation_real", "V1.I_PotentialEquation_real_gradx", "V1.I_PotentialEquation_real_grady", "botnode_model", "botnode_model:Potential", "botnodeelectrons", "botnodeelectrons:Electrons", "celec", "coordinate_index", "node_index", "noise", "noisesource", "topnode_model", "topnode_model:Potential", "topnode_model:topbias", "topnodeelectrons", "topnodeelectrons:Electrons", "vfield", "Bern01", "Bern01:Potential@n0", "Bern01:Potential@n1", "Bern10", "Bern10:Potential@n0", "Bern10:Potential@n1", "EdgeCouple", "EdgeInverseLength", "EdgeLength", "EdgeNodeVolume", "ElectricField", "ElectricField:Potential@n0", "ElectricField:Potential@n1", "ElectronCurrent", "ElectronCurrent:Electrons@n0", "ElectronCurrent:Electrons@n1", "ElectronCurrent:Potential@n0", "ElectronCurrent:Potential@n1", "Electrons@n0", "Electrons@n1", "Potential@n0", "Potential@n1", "PotentialEdgeFlux", "PotentialEdgeFlux:Potential@n0", "PotentialEdgeFlux:Potential@n1", "edge_index", "unitx", "unity", "vdiff", "vdiff:Potential@n0", "vdiff:Potential@n1", "ElementEdgeCouple", "ElementNodeVolume"
ZONE T="MyRegion" NODES=121, ELEMENTS=200, DATAPACKING=BLOCK, ZONETYPE=FETRIANGLE, VARLOCATION=([79,80]=CELLCENTERED)
0 0 1e-06 1e-06 0 1e-06 0 1e-06 0 1e-06 0 1e-06 0 1e-06 0 1e-06 0 1e-06 0 1e-06 0 1e-06 2e-06 2e-06 2e-06 2e-06 2e-06 2e-06 2e-06 2e-06 2e-06 2e-06 2e-06 3e-06 3e-06 3e-06 3e-06 3e-06 3e-06 3e-06 3e-06 3e-06 3e-06 3e-06 4e-06 4e-06 4e-06 4e-06 4e-06 4e-06 4e-06 4e-06 4e-06 4e-06 4e-06 5e-06 5e-06 5e-06 5e-06 5e-06 5e-06 5e-06 5e-06 5e-06 5e-06 5e-06 6e-06 6e-06 6e-06 6e-06 6e-06 6e-06 6e-06 6e-06 6e-06 6e-06 6e-06 7e-06 7e-06 7e-06 7e-06 7e-06 7e-06 7e-06 7e-06 7e-06 7e-06 7e-06 8e-06 8e-06 8e-06 8e-06 8e-06 8e-06 8e-06 8e-06 8e-06 8e-06 8e-06 9e-06 9e-06 9e-06 9e-06 9e-06 9e-06 9e-06 9e-06 9e-06 9e-06 9e-06 1e-05 1e-05 1e-05 1e-05 1e-05 1e-05 1e-05 1e-05 1e-05 1e-05 1e-05
0 1e-06 0 1e-06 2e-06 2e-06 3e-06 3e-06 4e-06 4e-06 5e-06 5e-06 6e-06 6e-06 7e-06 7e-06 8e-06 8e-06 9e-06 9e-06 1e-05 1e-05 0 1e-06 2e-06 3e-06 4e-06 5e-06 6e-06 7e-06 8e-06 9e-06 1e-05 0 1e-06 2e-06 3e-06 4e-06 5e-06 6e-06 7e-06 8e-06 9e-06 1e-05 0 1e-06 2e-06 3e-06 4e-06 5e-06 6e-06 7e-06 8e-06 9e-06 1e-05 0 1e-06 2e-06 3e-06 4e-06 5e-06 6e-06 7e-06 8e-06 9e-06 1e-05 0 1e-06 2e-06 3e-06 4e-06 5e-06 6e-06 7e-06 8e-06 9e-06 1e-05 0 1e-06 2e-06 3e-06 4e-06 5e-06 6e-06 7e-06 8e-06 9e-06 1e-05 0 1e-06 2e-06 3e-06 4e-06 5e-06 6e-06 7e-06 8e-06 9e-06 1e-05 0 1e-06 2e-06 3e-06 4e-06 5e-06 6e-06 7e-06 8e-06 9e-06 1e-05 0 1e-06 2e-06 3e-06 4e-06 5e-06 6e-06 7e-06 8e-06 9e-06 1e-05
1 1 0 0 1 0 1 0 1 0 1 0 1 0 1 0 1 0 1 0 1 0 0 0 0 0 0 0 0 0 0 0 0 0 0 0 0 0 0 0 0 0 0 0 0 0 0 0 0 0 0 0 0 0 0 0 0 0 0 0 0 0 0 0 0 0 0 0 0 0 0 0 0 0 0 0 0 0 0 0 0 0 0 0 0 0 0 0 0 0 0 0 0 0 0 0 0 0 0 0 0 0 0 0 0 0 0 0 0 0 1 1 1 1 1 1 1 1 1 1 1
5e-07 1e-06 0 0 1e-06 0 1e-06 0 1e-06 0 1e-06 0 1e-06 0 1e-06 0 1e-06 0 1e-06 0 5e-07 0 0 0 0 0 0 0 0 0 0 0 0 0 0 0 0 0 0 0 0 0 0 0 0 0 0 0 0 0 0 0 0 0 0 0 0 0 0 0 0 0 0 0 0 0 0 0 0 0 0 0 0 0 0 0 0 0 0 0 0 0 0 0 0 0 0 0 0 0 0 0 0 0 0 0 0 0 0 0 0 0 0 0 0 0 0 0 0 0 5e-07 1e-06 1e-06 1e-06 1e-06 1e-06 1e-06 1e-06 1e-06 1e-06 5e-07
1e+17 1e+17 1e+17 1e+17 1e+17 1e+17 1e+17 1e+17 1e+17 1e+17 1e+17 1e+17 1e+17 1e+17 1e+17 1e+17 1e+17 1e+17 1e+17 1e+17 1e+17 1e+17 1e+17 1e+17 1e+17 1e+17 1e+17 1e+17 1e+17 1e+17 1e+17 1e+17 1e+17 1e+17 1e+17 1e+17 1e+17 1e+17 1e+17 1e+17 1e+17 1e+17 1e+17 1e+17 1e+17 1e+17 1e+17 1e+17 1e+17 1e+17 1e+17 1e+17 1e+17 1e+17 1e+17 1e+17 1e+17 1e+17 1e+17 1e+17 1e+17 1e+17 1e+17 1e+17 1e+17 1e+17 1e+17 1e+17 1e+17 1e+17 1e+17 1e+17 1e+17 1e+17 1e+17 1e+17 1e+17 1e+17 1e+17 1e+17 1e+17 1e+17 1e+17 1e+17 1e+17 1e+17 1e+17 1e+17 1e+17 1e+17 1e+17 1e+17 1e+17 1e+17 1e+17 1e+17 1e+17 1e+17 1e+17 1e+17 1e+17 1e+17 1e+17 1e+17 1e+17 1e+17 1e+17 1e+17 1e+17 1e+17 1e+17 1e+17 1e+17 1e+17 1e+17 1e+17 1e+17 1e+17 1e+17 1e+17 1e+17
1e+17 1e+17 1e+17 1e+17 1e+17 1e+17 1e+17 1e+17 1e+17 1e+17 1e+17 1e+17 1e+17 1e+17 1e+17 1e+17 1e+17 1e+17 1e+17 1e+17 1e+17 1e+17 1e+17 1e+17 1e+17 1e+17 1e+17 1e+17 1e+17 1e+17 1e+17 1e+17 1e+17 1e+17 1e+17 1e+17 1e+17 1e+17 1e+17 1e+17 1e+17 1e+17 1e+17 1e+17 1e+17 1e+17 1e+17 1e+17 1e+17 1e+17 1e+17 1e+17 1e+17 1e+17 1e+17 1e+17 1e+17 1e+17 1e+17 1e+17 1e+17 1e+17 1e+17 1e+17 1e+17 1e+17 1e+17 1e+17 1e+17 1e+17 1e+17 1e+17 1e+17 1e+17 1e+17 1e+17 1e+17 1e+17 1e+17 1e+17 1e+17 1e+17 1e+17 1e+17 1e+17 1e+17 1e+17 1e+17 1e+17 1e+17 1e+17 1e+17 1e+17 1e+17 1e+17 1e+17 1e+17 1e+17 1e+17 1e+17 1e+17 1e+17 1e+17 1e+17 1e+17 1e+17 1e+17 1e+17 1e+17 1e+17 1e+17 1e+17 1e+17 1e+17 1e+17 1e+17 1e+17 1e+17 1e+17 1e+17 1e+17
0 0 0 0 0 0 0 0 0 0 0 0 0 0 0 0 0 0 0 0 0 0 0 0 0 0 0 0 0 0 0 0 0 0 0 0 0 0 0 0 0 0 0 0 0 0 0 0 0 0 0 0 0 0 0 0 0 0 0 0 0 0 0 0 0 0 0 0 0 0 0 0 0 0 0 0 0 0 0 0 0 0 0 0 0 0 0 0 0 0 0 0 0 0 0 0 0 0 0 0 0 0 0 0 0 0 0 0 0 0 0 0 0 0 0 0 0 0 0 0 0
0 0 0 0 0 0 0 0 0 0 0 0 0 0 0 0 0 0 0 0 0 0 0 0 0 0 0 0 0 0 0 0 0 0 0 0 0 0 0 0 0 0 0 0 0 0 0 0 0 0 0 0 0 0 0 0 0 0 0 0 0 0 0 0 0 0 0 0 0 0 0 0 0 0 0 0 0 0 0 0 0 0 0 0 0 0 0 0 0 0 0 0 0 0 0 0 0 0 0 0 0 0 0 0 0 0 0 0 0 0 0 0 0 0 0 0 0 0 0 0 0
1e+17 1e+17 1e+17 1e+17 1e+17 1e+17 1e+17 1e+17 1e+17 1e+17 1e+17 1e+17 1e+17 1e+17 1e+17 1e+17 1e+17 1e+17 1e+17 1e+17 1e+17 1e+17 1e+17 1e+17 1e+17 1e+17 1e+17 1e+17 1e+17 1e+17 1e+17 1e+17 1e+17 1e+17 1e+17 1e+17 1e+17 1e+17 1e+17 1e+17 1e+17 1e+17 1e+17 1e+17 1e+17 1e+17 1e+17 1e+17 1e+17 1e+17 1e+17 1e+17 1e+17 1e+17 1e+17 1e+17 1e+17 1e+17 1e+17 1e+17 1e+17 1e+17 1e+17 1e+17 1e+17 1e+17 1e+17 1e+17 1e+17 1e+17 1e+17 1e+17 1e+17 1e+17 1e+17 1e+17 1e+17 1e+17 1e+17 1e+17 1e+17 1e+17 1e+17 1e+17 1e+17 1e+17 1e+17 1e+17 1e+17 1e+17 1e+17 1e+17 1e+17 1e+17 1e+17 1e+17 1e+17 1e+17 1e+17 1e+17 1e+17 1e+17 1e+17 1e+17 1e+17 1e+17 1e+17 1e+17 1e+17 1e+17 1e+17 1e+17 1e+17 1e+17 1e+17 1e+17 1e+17 1e+17 1e+17 1e+17 1e+17
-0.016 -0.016 -0.016 -0.016 -0.016 -0.016 -0.016 -0.016 -0.016 -0.016 -0.016 -0.016 -0.016 -0.016 -0.016 -0.016 -0.016 -0.016 -0.016 -0.016 -0.016 -0.016 -0.016 -0.016 -0.016 -0.016 -0.016 -0.016 -0.016 -0.016 -0.016 -0.016 -0.016 -0.016 -0.016 -0.016 -0.016 -0.016 -0.016 -0.016 -0.016 -0.016 -0.016 -0.016 -0.016 -0.016 -0.016 -0.016 -0.016 -0.016 -0.016 -0.016 -0.016 -0.016 -0.016 -0.016 -0.016 -0.016 -0.016 -0.016 -0.016 -0.016 -0.016 -0.016 -0.016 -0.016 -0.016 -0.016 -0.016 -0.016 -0.016 -0.016 -0.016 -0.016 -0.016 -0.016 -0.016 -0.016 -0.016 -0.016 -0.016 -0.016 -0.016 -0.016 -0.016 -0.016 -0.016 -0.016 -0.016 -0.016 -0.016 -0.016 -0.016 -0.016 -0.016 -0.016 -0.016 -0.016 -0.016 -0.016 -0.016 -0.016 -0.016 -0.016 -0.016 -0.016 -0.016 -0.016 -0.016 -0.016 -0.016 -0.016 -0.016 -0.016 -0.016 -0.016 -0.016 -0.016 -0.016 -0.016 -0.016
-1.6e-19 -1.6e-19 -1.6e-19 -1.6e-19 -1.6e-19 -1.6e-19 -1.6e-19 -1.6e-19 -1.6e-19 -1.6e-19 -1.6e-19 -1.6e-19 -1.6e-19 -1.6e-19 -1.6e-19 -1.6e-19 -1.6e-19 -1.6e-19 -1.6e-19 -1.6e-19 -1.6e-19 -1.6e-19 -1.6e-19 -1.6e-19 -1.6e-19 -1.6e-19 -1.6e-19 -1.6e-19 -1.6e-19 -1.6e-19 -1.6e-19 -1.6e-19 -1.6e-19 -1.6e-19 -1.6e-19 -1.6e-19 -1.6e-19 -1.6e-19 -1.6e-19 -1.6e-19 -1.6e-19 -1.6e-19 -1.6e-19 -1.6e-19 -1.6e-19 -1.6e-19 -1.6e-19 -1.6e-19 -1.6e-19 -1.6e-19 -1.6e-19 -1.6e-19 -1.6e-19 -1.6e-19 -1.6e-19 -1.6e-19 -1.6e-19 -1.6e-19 -1.6e-19 -1.6e-19 -1.6e-19 -1.6e-19 -1.6e-19 -1.6e-19 -1.6e-19 -1.6e-19 -1.6e-19 -1.6e-19 -1.6e-19 -1.6e-19 -1.6e-19 -1.6e-19 -1.6e-19 -1.6e-19 -1.6e-19 -1.6e-19 -1.6e-19 -1.6e-19 -1.6e-19 -1.6e-19 -1.6e-19 -1.6e-19 -1.6e-19 -1.6e-19 -1.6e-19 -1.6e-19 -1.6e-19 -1.6e-19 -1.6e-19 -1.6e-19 -1.6e-19 -1.6e-19 -1.6e-19 -1.6e-19 -1.6e-19 -1.6e-19 -1.6e-19 -1.6e-19 -1.6e-19 -1.6e-19 -1.6e-19 -1.6e-19 -1.6e-19 -1.6e-19 -1.6e-19 -1.6e-19 -1.6e-19 -1.6e-19 -1.6e-19 -1.6e-19 -1.6e-19 -1.6e-19 -1.6e-19 -1.6e-19 -1.6e-19 -1.6e-19 -1.6e-19 -1.6e-19 -1.6e-19 -1.6e-19 -1.6e-19
0 0 0 0 0 0 0 0 0 0 0 0 0 0 0 0 0 0 0 0 0 0 0 0 0 0 0 0 0 0 0 0 0 0 0 0 0 0 0 0 0 0 0 0 0 0 0 0 0 0 0 0 0 0 0 0 0 0 0 0 0 0 0 0 0 0 0 0 0 0 0 0 0 0 0 0 0 0 0 0 0 0 0 0 0 0 0 0 0 0 0 0 0 0 0 0 0 0 0 0 0 0 0 0 0 0 0 0 0 0 0 0 0 0 0 0 0 0 0 0 0
0 0 0 0 0 0 0 0 0 0 0 0 0 0 0 0 0 0 0 0 0 0 0 0 0 0 0 0 0 0 0 0 0 0 0 0 0 0 0 0 0 0 0 0 0 0 0 0 0 0 0 0 0 0 0 0 0 0 0 0 0 0 0 0 0 0 0 0 0 0 0 0 0 0 0 0 0 0 0 0 0 0 0 0 0 0 0 0 0 0 0 0 0 0 0 0 0 0 0 0 0 0 0 0 0 0 0 0 0 0 0 0 0 0 0 0 0 0 0 0 0
1e+17 1e+17 1e+17 1e+17 1e+17 1e+17 1e+17 1e+17 1e+17 1e+17 1e+17 1e+17 1e+17 1e+17 1e+17 1e+17 1e+17 1e+17 1e+17 1e+17 1e+17 1e+17 1e+17 1e+17 1e+17 1e+17 1e+17 1e+17 1e+17 1e+17 1e+17 1e+17 1e+17 1e+17 1e+17 1e+17 1e+17 1e+17 1e+17 1e+17 1e+17 1e+17 1e+17 1e+17 1e+17 1e+17 1e+17 1e+17 1e+17 1e+17 1e+17 1e+17 1e+17 1e+17 1e+17 1e+17 1e+17 1e+17 1e+17 1e+17 1e+17 1e+17 1e+17 1e+17 1e+17 1e+17 1e+17 1e+17 1e+17 1e+17 1e+17 1e+17 1e+17 1e+17 1e+17 1e+17 1e+17 1e+17 1e+17 1e+17 1e+17 1e+17 1e+17 1e+17 1e+17 1e+17 1e+17 1e+17 1e+17 1e+17 1e+17 1e+17 1e+17 1e+17 1e+17 1e+17 1e+17 1e+17 1e+17 1e+17 1e+17 1e+17 1e+17 1e+17 1e+17 1e+17 1e+17 1e+17 1e+17 1e+17 1e+17 1e+17 1e+17 1e+17 1e+17 1e+17 1e+17 1e+17 1e+17 1e+17 1e+17
2.5e-13 5e-13 5e-13 1e-12 5e-13 1e-12 5e-13 1e-12 5e-13 1e-12 5e-13 1e-12 5e-13 1e-12 5e-13 1e-12 5e-13 1e-12 5e-13 1e-12 2.5e-13 5e-13 5e-13 1e-12 1e-12 1e-12 1e-12 1e-12 1e-12 1e-12 1e-12 1e-12 5e-13 5e-13 1e-12 1e-12 1e-12 1e-12 1e-12 1e-12 1e-12 1e-12 1e-12 5e-13 5e-13 1e-12 1e-12 1e-12 1e-12 1e-12 1e-12 1e-12 1e-12 1e-12 5e-13 5e-13 1e-12 1e-12 1e-12 1e-12 1e-12 1e-12 1e-12 1e-12 1e-12 5e-13 5e-13 1e-12 1e-12 1e-12 1e-12 1e-12 1e-12 1e-12 1e-12 1e-12 5e-13 5e-13 1e-12 1e-12 1e-12 1e-12 1e-12 1e-12 1e-12 1e-12 1e-12 5e-13 5e-13 1e-12 1e-12 1e-12 1e-12 1e-12 1e-12 1e-12 1e-12 1e-12 5e-13 5e-13 1e-12 1e-12 1e-12 1e-12 1e-12 1e-12 1e-12 1e-12 1e-12 5e-13 2.5e-13 5e-13 5e-13 5e-13 5e-13 5e-13 5e-13 5e-13 5e-13 5e-13 2.5e-13
0.001 0.001 0.0009 0.0009 0.001 0.0009 0.001 0.0009 0.001 0.0009 0.001 0.0009 0.001 0.0009 0.001 0.0009 0.001 0.0009 0.001 0.0009 0.001 0.0009 0.0008 0.0008 0.0008 0.0008 0.0008 0.0008 0.0008 0.0008 0.0008 0.0008 0.0008 0.0007 0.0007 0.0007 0.0007 0.0007 0.0007 0.0007 0.0007 0.0007 0.0007 0.0007 0.0006 0.0006 0.0006 0.0006 0.0006 0.0006 0.0006 0.0006 0.0006 0.0006 0.0006 0.0005 0.0005 0.0005 0.0005 0.0005 0.0005 0.0005 0.0005 0.0005 0.0005 0.0005 0.0004 0.0004 0.0004 0.0004 0.0004 0.0004 0.0004 0.0004 0.0004 0.0004 0.0004 0.0003 0.0003 0.0003 0.0003 0.0003 0.0003 0.0003 0.0003 0.0003 0.0003 0.0003 0.0002 0.0002 0.0002 0.0002 0.0002 0.0002 0.0002 0.0002 0.0002 0.0002 0.0002 0.0001 0.0001 0.0001 0.0001 0.0001 0.0001 0.0001 0.0001 0.0001 0.0001 0.0001 0 0 0 0 0 0 0 0 0 0 0
1.5872e-16 1.5872e-16 7.168e-17 7.168e-17 1.5872e-16 7.424e-17 1.5872e-16 7.424e-17 1.5872e-16 7.168e-17 1.5872e-16 7.168e-17 1.5872e-16 7.424e-17 1.5872e-16 7.168e-17 1.5872e-16 7.168e-17 1.5872e-16 7.424e-17 1.5872e-16 7.424e-17 3.328e-17 3.328e-17 3.328e-17 3.328e-17 3.328e-17 3.328e-17 3.328e-17 3.328e-17 3.328e-17 3.328e-17 3.328e-17 1.536e-17 1.536e-17 1.536e-17 1.536e-17 1.536e-17 1.536e-17 1.536e-17 1.536e-17 1.536e-17 1.536e-17 1.536e-17 7.68e-18 7.68e-18 7.68e-18 7.68e-18 7.68e-18 7.68e-18 7.68e-18 7.68e-18 7.68e-18 1.024e-17 1.024e-17 5.12e-18 5.12e-18 5.12e-18 5.12e-18 5.12e-18 5.12e-18 5.12e-18 5.12e-18 5.12e-18 5.12e-18 5.12e-18 7.68e-18 7.68e-18 7.68e-18 7.68e-18 7.68e-18 7.68e-18 7.68e-18 7.68e-18 7.68e-18 7.68e-18 7.68e-18 1.792e-17 1.792e-17 1.792e-17 1.792e-17 1.536e-17 1.792e-17 1.536e-17 1.536e-17 1.536e-17 1.536e-17 1.536e-17 3.584e-17 3.328e-17 3.584e-17 3.328e-17 3.584e-17 3.328e-17 3.328e-17 3.328e-17 3.328e-17 3.328e-17 3.328e-17 7.424e-17 7.424e-17 7.424e-17 7.424e-17 7.424e-17 7.424e-17 7.424e-17 7.424e-17 7.424e-17 7.168e-17 7.168e-17 1.5872e-16 1.5872e-16 1.5872e-16 1.5872e-16 1.5872e-16 1.5872e-16 1.5872e-16 1.5872e-16 1.5872e-16 1.5872e-16 1.5872e-16
1.6e-19 1.6e-19 1.6e-19 1.6e-19 1.6e-19 1.6e-19 1.6e-19 1.6e-19 1.6e-19 1.6e-19 1.6e-19 1.6e-19 1.6e-19 1.6e-19 1.6e-19 1.6e-19 1.6e-19 1.6e-19 1.6e-19 1.6e-19 1.6e-19 1.6e-19 1.6e-19 1.6e-19 1.6e-19 1.6e-19 1.6e-19 1.6e-19 1.6e-19 1.6e-19 1.6e-19 1.6e-19 1.6e-19 1.6e-19 1.6e-19 1.6e-19 1.6e-19 1.6e-19 1.6e-19 1.6e-19 1.6e-19 1.6e-19 1.6e-19 1.6e-19 1.6e-19 1.6e-19 1.6e-19 1.6e-19 1.6e-19 1.6e-19 1.6e-19 1.6e-19 1.6e-19 1.6e-19 1.6e-19 1.6e-19 1.6e-19 1.6e-19 1.6e-19 1.6e-19 1.6e-19 1.6e-19 1.6e-19 1.6e-19 1.6e-19 1.6e-19 1.6e-19 1.6e-19 1.6e-19 1.6e-19 1.6e-19 1.6e-19 1.6e-19 1.6e-19 1.6e-19 1.6e-19 1.6e-19 1.6e-19 1.6e-19 1.6e-19 1.6e-19 1.6e-19 1.6e-19 1.6e-19 1.6e-19 1.6e-19 1.6e-19 1.6e-19 1.6e-19 1.6e-19 1.6e-19 1.6e-19 1.6e-19 1.6e-19 1.6e-19 1.6e-19 1.6e-19 1.6e-19 1.6e-19 1.6e-19 1.6e-19 1.6e-19 1.6e-19 1.6e-19 1.6e-19 1.6e-19 1.6e-19 1.6e-19 1.6e-19 1.6e-19 1.6e-19 1.6e-19 1.6e-19 1.6e-19 1.6e-19 1.6e-19 1.6e-19 1.6e-19 1.6e-19 1.6e-19 1.6e-19
0.001 0.001 0.0009 0.0009 0.001 0.0009 0.001 0.0009 0.001 0.0009 0.001 0.0009 0.001 0.0009 0.001 0.0009 0.001 0.0009 0.001 0.0009 0.001 0.0009 0.0008 0.0008 0.0008 0.0008 0.0008 0.0008 0.0008 0.0008 0.0008 0.0008 0.0008 0.0007 0.0007 0.0007 0.0007 0.0007 0.0007 0.0007 0.0007 0.0007 0.0007 0.0007 0.0006 0.0006 0.0006 0.0006 0.0006 0.0006 0.0006 0.0006 0.0006 0.0006 0.0006 0.0005 0.0005 0.0005 0.0005 0.0005 0.0005 0.0005 0.0005 0.0005 0.0005 0.0005 0.0004 0.0004 0.0004 0.0004 0.0004 0.0004 0.0004 0.0004 0.0004 0.0004 0.0004 0.0003 0.0003 0.0003 0.0003 0.0003 0.0003 0.0003 0.0003 0.0003 0.0003 0.0003 0.0002 0.0002 0.0002 0.0002 0.0002 0.0002 0.0002 0.0002 0.0002 0.0002 0.0002 0.0001 0.0001 0.0001 0.0001 0.0001 0.0001 0.0001 0.0001 0.0001 0.0001 0.0001 0 0 0 0 0 0 0 0 0 0 0
0 0 0 0 0 0 0 0 0 0 0 0 0 0 0 0 0 0 0 0 0 0 0 0 0 0 0 0 0 0 0 0 0 0 0 0 0 0 0 0 0 0 0 0 0 0 0 0 0 0 0 0 0 0 0 0 0 0 0 0 0 0 0 0 0 0 0 0 0 0 0 0 0 0 0 0 0 0 0 0 0 0 0 0 0 0 0 0 0 0 0 0 0 0 0 0 0 0 0 0 0 0 0 0 0 0 0 0 0 0 0 0 0 0 0 0 0 0 0 0 0
0 0 -4.22707e-08 -4.22707e-08 0 -4.22707e-08 0 -4.22707e-08 0 -4.22707e-08 0 -4.22707e-08 0 -4.22707e-08 0 -4.22707e-08 0 -4.22707e-08 0 -4.22707e-08 0 -4.22707e-08 -5.66295e-08 -5.66295e-08 -5.66295e-08 -5.66295e-08 -5.66295e-08 -5.66295e-08 -5.66295e-08 -5.66295e-08 -5.66295e-08 -5.66295e-08 -5.66295e-08 -5.80829e-08 -5.80829e-08 -5.80829e-08 -5.80829e-08 -5.80829e-08 -5.80829e-08 -5.80829e-08 -5.80829e-08 -5.80829e-08 -5.80829e-08 -5.80829e-08 -5.35689e-08 -5.35689e-08 -5.35689e-08 -5.35689e-08 -5.35689e-08 -5.35689e-08 -5.35689e-08 -5.35689e-08 -5.35689e-08 -5.35689e-08 -5.35689e-08 -4.62954e-08 -4.62954e-08 -4.62954e-08 -4.62954e-08 -4.62954e-08 -4.62954e-08 -4.62954e-08 -4.62954e-08 -4.62954e-08 -4.62954e-08 -4.62954e-08 -3.77446e-08 -3.77446e-08 -3.77446e-08 -3.77446e-08 -3.77446e-08 -3.77446e-08 -3.77446e-08 -3.77446e-08 -3.77446e-08 -3.77446e-08 -3.77446e-08 -2.86011e-08 -2.86011e-08 -2.86011e-08 -2.86011e-08 -2.86011e-08 -2.86011e-08 -2.86011e-08 -2.86011e-08 -2.86011e-08 -2.86011e-08 -2.86011e-08 -1.91799e-08 -1.91799e-08 -1.91799e-08 -1.91799e-08 -1.91799e-08 -1.91799e-08 -1.91799e-08 -1.91799e-08 -1.91799e-08 -1.91799e-08 -1.91799e-08 -9.62466e-09 -9.62466e-09 -9.62466e-09 -9.62466e-09 -9.62466e-09 -9.62466e-09 -9.62466e-09 -9.62466e-09 -9.62466e-09 -9.62466e-09 -9.62466e-09 0 0 0 0 0 0 0 0 0 0 0
0 0 -0.0143588 -0.0143588 0 -0.0143588 0 -0.0143588 0 -0.0143588 0 -0.0143588 0 -0.0143588 0 -0.0143588 0 -0.0143588 0 -0.0143588 0 -0.0143588 -0.010057 -0.00790607 -0.00790607 -0.00790607 -0.00790607 -0.00790607 -0.00790607 -0.00790607 -0.00790607 -0.00790607 -0.00575516 0.000535738 0.00153028 0.00153028 0.00153028 0.00153028 0.00153028 0.00153028 0.00153028 0.00153028 0.00153028 0.00252483 0.0054338 0.00589375 0.00589375 0.00589375 0.00589375 0.00589375 0.00589375 0.00589375 0.00589375 0.00589375 0.0063537 0.00769931 0.00791218 0.00791218 0.00791218 0.00791218 0.00791218 0.00791218 0.00791218 0.00791218 0.00791218 0.00812504 0.00874833 0.00884712 0.00884712 0.00884712 0.00884712 0.00884712 0.00884712 0.00884712 0.00884712 0.00884712 0.0089459 0.00923604 0.00928232 0.00928232 0.00928232 0.00928232 0.00928232 0.00928232 0.00928232 0.00928232 0.00928232 0.00932861 0.00946588 0.00948823 0.00948823 0.00948823 0.00948823 0.00948823 0.00948823 0.00948823 0.00948823 0.00948823 0.00951058 0.00955529 0.00955529 0.00955529 0.00955529 0.00955529 0.00955529 0.00955529 0.00955529 0.00955529 0.00955529 0.00955529 0 0 0 0 0 0 0 0 0 0 0
0 0 -1.98523e-17 -1.76465e-17 0 -2.20581e-18 0 1.10291e-17 0 -8.82326e-18 0 -1.10291e-17 0 -2.20581e-18 0 8.82326e-18 0 1.10291e-17 0 4.41163e-18 0 3.30872e-18 -1.98523e-17 -1.10291e-17 8.82326e-18 7.72035e-18 -4.41163e-18 -1.32349e-17 -3.30872e-18 4.41163e-18 4.41163e-18 5.51454e-18 2.20581e-18 -6.61744e-18 2.20581e-18 3.30872e-18 1.76465e-17 3.30872e-18 -1.54407e-17 -9.92617e-18 -9.92617e-18 0 -2.20581e-18 -4.41163e-18 3.08814e-17 1.43378e-17 1.10291e-17 2.75727e-17 -4.41163e-18 -1.76465e-17 -2.09552e-17 -2.20581e-17 -1.10291e-17 -1.10291e-17 -6.61744e-18 1.98523e-17 -2.20581e-18 2.20581e-17 1.98523e-17 -4.41163e-18 -1.2132e-17 -1.76465e-17 -1.98523e-17 -1.76465e-17 -1.76465e-17 -1.54407e-17 -6.61744e-18 6.06599e-18 2.31611e-17 8.82326e-18 -8.82326e-18 -1.10291e-17 -7.72035e-18 -1.10291e-17 -1.32349e-17 -1.32349e-17 -7.72035e-18 -2.20581e-18 8.82326e-18 6.61744e-18 3.86018e-18 -8.82326e-18 -6.06599e-18 -7.72035e-18 -6.61744e-18 5.51454e-19 -2.20581e-18 -4.41163e-18 1.10291e-18 1.10291e-18 1.93009e-18 1.37863e-18 -5.51454e-18 -3.86018e-18 -5.51454e-18 -5.51454e-19 1.93009e-18 8.27181e-19 5.51454e-18 0 -5.51454e-19 1.10291e-18 5.51454e-19 -4.41163e-18 -1.10291e-18 -3.30872e-18 -5.51454e-19 0 3.86018e-18 3.30872e-18 0 0 0 0 0 0 0 0 0 0 0
0 0 0.90033 0.90033 0 0.90033 0 0.90033 0 0.90033 0 0.90033 0 0.90033 0 0.90033 0 0.90033 0 0.90033 0 0.90033 0.800482 0.800482 0.800482 0.800482 0.800482 0.800482 0.800482 0.800482 0.800482 0.800482 0.800482 0.700551 0.700551 0.700551 0.700551 0.700551 0.700551 0.700551 0.700551 0.700551 0.700551 0.700551 0.60058 0.60058 0.60058 0.60058 0.60058 0.60058 0.60058 0.60058 0.60058 0.60058 0.60058 0.500588 0.500588 0.500588 0.500588 0.500588 0.500588 0.500588 0.500588 0.500588 0.500588 0.500588 0.40058 0.40058 0.40058 0.40058 0.40058 0.40058 0.40058 0.40058 0.40058 0.40058 0.40058 0.300551 0.300551 0.300551 0.300551 0.300551 0.300551 0.300551 0.300551 0.300551 0.300551 0.300551 0.200483 0.200483 0.200483 0.200483 0.200483 0.200483 0.200483 0.200483 0.200483 0.200483 0.200483 0.100331 0.100331 0.100331 0.100331 0.100331 0.100331 0.100331 0.100331 0.100331 0.100331 0.100331 0 0 0 0 0 0 0 0 0 0 0
0 0 -99848.1 -99848.1 0 -99848.1 0 -99848.1 0 -99848.1 0 -99848.1 0 -99848.1 0 -99848.1 0 -99848.1 0 -99848.1 0 -99848.1 -99875.7 -99889.5 -99889.5 -99889.5 -99889.5 -99889.5 -99889.5 -99889.5 -99889.5 -99889.5 -99903.3 -99944.1 -99950.7 -99950.7 -99950.7 -99950.7 -99950.7 -99950.7 -99950.7 -99950.7 -99950.7 -99957.4 -99977.6 -99981.2 -99981.2 -99981.2 -99981.2 -99981.2 -99981.2 -99981.2 -99981.2 -99981.2 -99984.7 -99997.2 -99999.9 -99999.9 -99999.9 -99999.9 -99999.9 -99999.9 -99999.9 -99999.9 -99999.9 -100003 -100015 -100019 -100019 -100019 -100019 -100019 -100019 -100019 -100019 -100019 -100022 -100042 -100049 -100049 -100049 -100049 -100049 -100049 -100049 -100049 -100049 -100056 -100096 -100110 -100110 -100110 -100110 -100110 -100110 -100110 -100110 -100110 -100124 -100152 -100152 -100152 -100152 -100152 -100152 -100152 -100152 -100152 -100152 -100152 0 0 0 0 0 0 0 0 0 0 0
0 0 1.11022e-10 1.11022e-10 0 1.11022e-10 0 -1.85037e-10 0 3.70074e-11 0 0 0 -1.11022e-10 0 -1.11022e-10 0 -1.85037e-10 0 -1.11022e-10 0 -5.55112e-11 1.11022e-10 2.59052e-10 2.15412e-26 -2.03541e-10 -7.40149e-11 -3.70074e-11 -4.30823e-27 -5.55112e-11 -2.22045e-10 -1.11022e-10 3.70074e-11 2.59052e-10 2.40548e-10 -7.40149e-11 -1.4803e-10 -1.11022e-10 -1.85037e-11 7.40149e-11 -7.40149e-11 -1.4803e-10 -1.85037e-11 1.11022e-10 3.70074e-11 -1.85037e-11 -1.85037e-11 -1.85037e-10 -1.11022e-10 7.40149e-11 1.29526e-10 1.85037e-11 -5.55112e-11 5.55112e-11 1.11022e-10 -1.11022e-10 7.40149e-11 3.70074e-11 -1.75785e-10 -1.0177e-10 9.25186e-12 5.55112e-11 2.77556e-11 6.4763e-11 1.38778e-10 1.29526e-10 -3.70074e-11 1.85037e-11 -8.32667e-11 -8.32667e-11 -1.85037e-11 2.77556e-11 0 1.85037e-11 5.55112e-11 9.25186e-11 9.25186e-11 0 -3.70074e-11 -5.55112e-11 -2.77556e-11 2.31296e-11 3.23815e-11 1.85037e-11 2.31296e-11 -3.23815e-11 -4.62593e-12 -3.70074e-11 0 -3.23815e-11 -2.31296e-11 -6.93889e-12 2.54426e-11 9.25186e-12 2.77556e-11 2.42338e-26 -3.70074e-11 -3.46945e-11 -4.62593e-12 -1.38778e-11 -1.85037e-11 1.38778e-11 -9.25186e-12 2.31296e-11 -1.85037e-11 2.77556e-11 -9.25186e-12 -2.31296e-11 0 -1.38778e-11 0 0 0 0 0 0 0 0 0 0 0
0 0 275393 275393 0 275393 0 275393 0 275393 0 275393 0 275393 0 275393 0 275393 0 275393 0 275393 368941 368941 368941 368941 368941 368941 368941 368941 368941 368941 368941 378409 378409 378409 378409 378409 378409 378409 378409 378409 378409 378409 349001 349001 349001 349001 349001 349001 349001 349001 349001 349001 349001 301614 301614 301614 301614 301614 301614 301614 301614 301614 301614 301614 245906 245906 245906 245906 245906 245906 245906 245906 245906 245906 245906 186336 186336 186336 186336 186336 186336 186336 186336 186336 186336 186336 124957 124957 124957 124957 124957 124957 124957 124957 124957 124957 124957 62704.6 62704.6 62704.6 62704.6 62704.6 62704.6 62704.6 62704.6 62704.6 62704.6 62704.6 0 0 0 0 0 0 0 0 0 0 0
0 0 9.35474e+10 9.35474e+10 0 9.35474e+10 0 9.35474e+10 0 9.35474e+10 0 9.35474e+10 0 9.35474e+10 0 9.35474e+10 0 9.35474e+10 0 9.35474e+10 0 9.35474e+10 6.55211e+10 5.1508e+10 5.1508e+10 5.1508e+10 5.1508e+10 5.1508e+10 5.1508e+10 5.1508e+10 5.1508e+10 5.1508e+10 3.74948e+10 -3.49033e+09 -9.96977e+09 -9.96977e+09 -9.96977e+09 -9.96977e+09 -9.96977e+09 -9.96977e+09 -9.96977e+09 -9.96977e+09 -9.96977e+09 -1.64492e+10 -3.54012e+10 -3.83977e+10 -3.83977e+10 -3.83977e+10 -3.83977e+10 -3.83977e+10 -3.83977e+10 -3.83977e+10 -3.83977e+10 -3.83977e+10 -4.13943e+10 -5.01609e+10 -5.15477e+10 -5.15477e+10 -5.15477e+10 -5.15477e+10 -5.15477e+10 -5.15477e+10 -5.15477e+10 -5.15477e+10 -5.15477e+10 -5.29346e+10 -5.69953e+10 -5.76389e+10 -5.76389e+10 -5.76389e+10 -5.76389e+10 -5.76389e+10 -5.76389e+10 -5.76389e+10 -5.76389e+10 -5.76389e+10 -5.82824e+10 -6.01727e+10 -6.04742e+10 -6.04742e+10 -6.04742e+10 -6.04742e+10 -6.04742e+10 -6.04742e+10 -6.04742e+10 -6.04742e+10 -6.04742e+10 -6.07758e+10 -6.16701e+10 -6.18157e+10 -6.18157e+10 -6.18157e+10 -6.18157e+10 -6.18157e+10 -6.18157e+10 -6.18157e+10 -6.18157e+10 -6.18157e+10 -6.19614e+10 -6.22526e+10 -6.22526e+10 -6.22526e+10 -6.22526e+10 -6.22526e+10 -6.22526e+10 -6.22526e+10 -6.22526e+10 -6.22526e+10 -6.22526e+10 -6.22526e+10 0 0 0 0 0 0 0 0 0 0 0
0 0 0.000174623 7.76102e-05 0 3.88051e-05 0 -0.000135818 0 -5.82077e-05 0 -3.88051e-05 0 -9.70128e-05 0 9.70128e-05 0 0 0 -3.88051e-05 0 -2.91038e-05 0.000135818 8.73115e-05 1.807e-20 -0.000164922 -6.79089e-05 -0.000116415 -1.94026e-05 5.82077e-05 -9.70128e-06 -4.85064e-05 1.94026e-05 3.88051e-05 0.000126117 9.70128e-06 -6.79089e-05 -6.79089e-05 -8.73115e-05 -0.000106714 -9.70128e-06 -2.91038e-05 -9.70128e-06 9.70128e-05 7.76102e-05 7.76102e-05 9.70128e-06 -9.70128e-06 -3.88051e-05 -0.000116415 -0.000116415 3.88051e-05 0 0.000106714 0.000194026 3.88051e-05 0 4.85064e-05 1.94026e-05 -7.27596e-05 -0.000106714 -2.91038e-05 1.94026e-05 5.82077e-05 0.000179474 0.000184324 0 -4.36557e-05 2.42532e-05 -2.91038e-05 -6.30583e-05 -6.79089e-05 -3.39545e-05 4.36557e-05 0.000106714 0.000145519 5.82077e-05 -1.94026e-05 -2.91038e-05 9.70128e-06 -3.39545e-05 -2.91038e-05 -4.85064e-05 3.39545e-05 6.79089e-05 5.82077e-05 2.91038e-05 -9.70128e-06 2.91038e-05 1.69772e-05 2.42532e-06 -2.42532e-06 -1.45519e-05 -1.21266e-05 3.39545e-05 2.91038e-05 1.45519e-05 -2.18279e-05 -2.42532e-05 3.63798e-05 9.70128e-06 9.70128e-06 -4.85064e-06 -4.85064e-06 -4.85064e-06 1.94026e-05 1.94026e-05 -4.85064e-06 -1.94026e-05 -1.45519e-05 0 0 0 0 0 0 0 0 0 0 0
0 0 -2.14806e+09 -2.14806e+09 0 -2.14806e+09 0 -2.14806e+09 0 -2.14806e+09 0 -2.14806e+09 0 -2.14806e+09 0 -2.14806e+09 0 -2.14806e+09 0 -2.14806e+09 0 -2.14806e+09 -3.13758e+09 -3.13758e+09 -3.13758e+09 -3.13758e+09 -3.13758e+09 -3.13758e+09 -3.13758e+09 -3.13758e+09 -3.13758e+09 -3.13758e+09 -3.13758e+09 -3.58753e+09 -3.58753e+09 -3.58753e+09 -3.58753e+09 -3.58753e+09 -3.58753e+09 -3.58753e+09 -3.58753e+09 -3.58753e+09 -3.58753e+09 -3.58753e+09 -3.77933e+09 -3.77933e+09 -3.77933e+09 -3.77933e+09 -3.77933e+09 -3.77933e+09 -3.77933e+09 -3.77933e+09 -3.77933e+09 -3.77933e+09 -3.77933e+09 -3.83284e+09 -3.83284e+09 -3.83284e+09 -3.83284e+09 -3.83284e+09 -3.83284e+09 -3.83284e+09 -3.83284e+09 -3.83284e+09 -3.83284e+09 -3.83284e+09 -3.78124e+09 -3.78124e+09 -3.78124e+09 -3.78124e+09 -3.78124e+09 -3.78124e+09 -3.78124e+09 -3.78124e+09 -3.78124e+09 -3.78124e+09 -3.78124e+09 -3.5916e+09 -3.5916e+09 -3.5916e+09 -3.5916e+09 -3.5916e+09 -3.5916e+09 -3.5916e+09 -3.5916e+09 -3.5916e+09 -3.5916e+09 -3.5916e+09 -3.14391e+09 -3.14391e+09 -3.14391e+09 -3.14391e+09 -3.14391e+09 -3.14391e+09 -3.14391e+09 -3.14391e+09 -3.14391e+09 -3.14391e+09 -3.14391e+09 -2.15509e+09 -2.15509e+09 -2.15509e+09 -2.15509e+09 -2.15509e+09 -2.15509e+09 -2.15509e+09 -2.15509e+09 -2.15509e+09 -2.15509e+09 -2.15509e+09 0 0 0 0 0 0 0 0 0 0 0
0 0 -9.89514e+14 -9.89514e+14 0 -9.89514e+14 0 -9.89514e+14 0 -9.89514e+14 0 -9.89514e+14 0 -9.89514e+14 0 -9.89514e+14 0 -9.89514e+14 0 -9.89514e+14 0 -9.89514e+14 -8.0966e+14 -7.19733e+14 -7.19733e+14 -7.19733e+14 -7.19733e+14 -7.19733e+14 -7.19733e+14 -7.19733e+14 -7.19733e+14 -7.19733e+14 -6.29806e+14 -3.63902e+14 -3.20878e+14 -3.20878e+14 -3.20878e+14 -3.20878e+14 -3.20878e+14 -3.20878e+14 -3.20878e+14 -3.20878e+14 -3.20878e+14 -2.77853e+14 -1.45706e+14 -1.22657e+14 -1.22657e+14 -1.22657e+14 -1.22657e+14 -1.22657e+14 -1.22657e+14 -1.22657e+14 -1.22657e+14 -1.22657e+14 -9.96083e+13 -1.84724e+13 -9.5341e+11 -9.5341e+11 -9.5341e+11 -9.5341e+11 -9.5341e+11 -9.5341e+11 -9.5341e+11 -9.5341e+11 -9.5341e+11 1.65655e+13 9.76149e+13 1.20621e+14 1.20621e+14 1.20621e+14 1.20621e+14 1.20621e+14 1.20621e+14 1.20621e+14 1.20621e+14 1.20621e+14 1.43626e+14 2.75656e+14 3.18665e+14 3.18665e+14 3.18665e+14 3.18665e+14 3.18665e+14 3.18665e+14 3.18665e+14 3.18665e+14 3.18665e+14 3.61674e+14 6.2807e+14 7.18259e+14 7.18259e+14 7.18259e+14 7.18259e+14 7.18259e+14 7.18259e+14 7.18259e+14 7.18259e+14 7.18259e+14 8.08447e+14 9.88825e+14 9.88825e+14 9.88825e+14 9.88825e+14 9.88825e+14 9.88825e+14 9.88825e+14 9.88825e+14 9.88825e+14 9.88825e+14 9.88825e+14 0 0 0 0 0 0 0 0 0 0 0
0 0 -375.271 -205.517 0 -243.187 0 150.204 0 151.634 0 59.2868 0 216.484 0 661.85 0 362.555 0 -95.8443 0 -128.031 -1010.1 -691.652 34.8091 735.68 -120.322 -386.238 -123.739 692.844 475.407 228.882 -517.209 -1359.62 -885.646 192.404 80.1881 -340.064 -390.053 583.808 823.577 717.084 -86.0691 -871.023 -989.437 -272.592 295.719 679.016 -28.2923 -269.81 382.503 58.2536 -177.622 -1059.06 -1839.48 -444.094 -328.223 170.708 637.054 5.72205 265.837 683.228 -351.906 -1172.94 -1944.07 -2081.24 138.283 127.157 302.871 255.744 -16.2919 713.825 561.237 -709.136 -1032.59 -1534.22 -1085.44 104.904 179.529 117.143 165.621 -19.9477 519.435 -299.772 -395.219 -207.186 -485.42 -328.064 -88.6917 51.26 145.833 -95.3674 -98.149 40.2133 -345.707 -14.8614 -18.5172 -169.834 -285.467 -91.5527 43.3922 53.7237 -206.47 -68.9824 -17.9609 -172.933 15.2588 -28.1334 -121.117 34.3323 0 0 0 0 0 0 0 0 0 0 0
0 0 0 0 0 0 0 0 0 0 0 0 0 0 0 0 0 0 0 0 0 0 0 0 0 0 0 0 0 0 0 0 0 0 0 0 0 0 0 0 0 0 0 0 0 0 0 0 0 0 0 0 0 0 0 0 0 0 0 0 0 0 0 0 0 0 0 0 0 0 0 0 0 0 0 0 0 0 0 0 0 0 0 0 0 0 0 0 0 0 0 0 0 0 0 0 0 0 0 0 0 0 0 0 0 0 0 0 0 0 0 0 0 0 0 0 0 0 0 0 0
0 0 0 0 0 0 0 0 0 0 0 0 0 0 0 0 0 0 0 0 0 0 0 0 0 0 0 0 0 0 0 0 0 0 0 0 0 0 0 0 0 0 0 0 0 0 0 0 0 0 0 0 0 0 0 0 0 0 0 0 0 0 0 0 0 0 0 0 0 0 0 0 0 0 0 0 0 0 0 0 0 0 0 0 0 0 0 0 0 0 0 0 0 0 0 0 0 0 0 0 0 0 0 0 0 0 0 0 0 0 1 1 1 1 1 1 1 1 1 1 1
0 0 0 0 0 0 0 0 0 0 0 0 0 0 0 0 0 0 0 0 0 0 0 0 0 0 0 0 0 0 0 0 0 0 0 0 0 0 0 0 0 0 0 0 0 0 0 0 0 0 0 0 0 0 0 0 0 0 0 0 0 0 0 0 0 0 0 0 0 0 0 0 0 0 0 0 0 0 0 0 0 0 0 0 0 0 0 0 0 0 0 0 0 0 0 0 0 0 0 0 0 0 0 0 0 0 0 0 0 0 0 0 0 0 0 0 0 0 0 0 0
0 0 0 0 0 0 0 0 0 0 0 0 0 0 0 0 0 0 0 0 0 0 0 0 0 0 0 0 0 0 0 0 0 0 0 0 0 0 0 0 0 0 0 0 0 0 0 0 0 0 0 0 0 0 0 0 0 0 0 0 0 0 0 0 0 0 0 0 0 0 0 0 0 0 0 0 0 0 0 0 0 0 0 0 0 0 0 0 0 0 0 0 0 0 0 0 0 0 0 0 0 0 0 0 0 0 0 0 0 0 1 1 1 1 1 1 1 1 1 1 1
1e+17 1e+17 1e+17 1e+17 1e+17 1e+17 1e+17 1e+17 1e+17 1e+17 1e+17 1e+17 1e+17 1e+17 1e+17 1e+17 1e+17 1e+17 1e+17 1e+17 1e+17 1e+17 1e+17 1e+17 1e+17 1e+17 1e+17 1e+17 1e+17 1e+17 1e+17 1e+17 1e+17 1e+17 1e+17 1e+17 1e+17 1e+17 1e+17 1e+17 1e+17 1e+17 1e+17 1e+17 1e+17 1e+17 1e+17 1e+17 1e+17 1e+17 1e+17 1e+17 1e+17 1e+17 1e+17 1e+17 1e+17 1e+17 1e+17 1e+17 1e+17 1e+17 1e+17 1e+17 1e+17 1e+17 1e+17 1e+17 1e+17 1e+17 1e+17 1e+17 1e+17 1e+17 1e+17 1e+17 1e+17 1e+17 1e+17 1e+17 1e+17 1e+17 1e+17 1e+17 1e+17 1e+17 1e+17 1e+17 1e+17 1e+17 1e+17 1e+17 1e+17 1e+17 1e+17 1e+17 1e+17 1e+17 1e+17 1e+17 1e+17 1e+17 1e+17 1e+17 1e+17 1e+17 1e+17 1e+17 1e+17 1e+17 1e+17 1e+17 1e+17 1e+17 1e+17 1e+17 1e+17 1e+17 1e+17 1e+17 1e+17
11 12 22 23 13 24 14 25 15 26 16 27 17 28 18 29 19 30 20 31 21 32 33 34 35 36 37 38 39 40 41 42 43 44 45 46 47 48 49 50 51 52 53 54 55 56 57 58 59 60 61 62 63 64 65 66 67 68 69 70 71 72 73 74 75 76 77 78 79 80 81 82 83 84 85 86 87 88 89 90 91 92 93 94 95 96 97 98 99 100 101 102 103 104 105 106 107 108 109 110 111 112 113 114 115 116 117 118 119 120 121 122 123 124 125 126 127 128 129 130 131